data_SrTb2O4_30341-ICSD
_audit_creation_method         'generated by CrystalMaker X for macOS'
_cell_length_a                  10.100000
_cell_length_b                  11.980000
_cell_length_c                   3.450000
_cell_angle_alpha               90.000000
_cell_angle_beta                90.000000
_cell_angle_gamma               90.000000

_symmetry_space_group_name_H-M     'P n a m'

loop_
_symmetry_equiv_pos_as_xyz
'+x,+y,+z'
'1/2-x,1/2+y,-z'
'-x,-y,1/2+z'
'1/2+x,1/2-y,1/2-z'
'-x,-y,-z'
'1/2+x,1/2-y,+z'
'+x,+y,1/2-z'
'1/2-x,1/2+y,1/2+z'

loop_
_atom_site_label
_atom_site_type_symbol
_atom_site_occupancy
_atom_site_fract_x
_atom_site_fract_y
_atom_site_fract_z
 O1  O 1.0  0.194999992847  0.196999996901  0.25
 O2  O 1.0  0.131999999285  0.483999997377  0.25
 O3  O 1.0  0.510999977589  0.782000005245  0.25
 O4  O 1.0  0.398999989033  0.430000007153  0.25
 Sr1  Sr 1.0  0.750999987125  0.648999989033  0.25
 Tb1  Tb 1.0  0.42199999094  0.108000002801  0.25
 Tb2  Tb 1.0  0.423000007868  0.611999988556  0.25

